TITLE = "ABAQUS"
VARIABLES = "X", "Y", "Z", "U1", "U2", "U3", "U", "S.Mises"
ZONE N = 8324, E = 6084, DATAPACKING = POINT, ZONETYPE = FEBRICK
-6.358610000e-37 -1.019130000e-36  5.500000000e+01 -6.358610000e-37 -1.019130000e-36  6.685790000e-37  1.374751995e-36  1.552620000e-01
-3.180090000e-01  4.567248000e+01  3.102310000e-01 -3.180090000e-01 -9.327520000e+00  3.102310000e-01  9.338094150e+00  1.055170000e+00
-5.500000000e+01 -9.662030000e-37  6.002610000e-37 -6.046170000e-37 -9.662030000e-37  6.002610000e-37  1.288186020e-36  1.526720000e-01
 2.545200000e-37  4.109930000e-37  4.500000000e+01  2.545200000e-37  4.109930000e-37  2.533690000e-37  5.457943996e-37  8.365560000e-02
-3.209020000e+00  3.598474000e+01  2.756730000e+00 -3.209020000e+00 -9.015260000e+00  2.756730000e+00  9.958528130e+00  1.031440000e+00
-4.500000000e+01  3.753610000e-37 -2.272540000e-37 -2.206880000e-37  3.753610000e-37 -2.272540000e-37  4.911654041e-37  7.812280000e-02
-7.110440000e-37 -1.192650000e-36 -5.500000000e+01 -7.110440000e-37 -1.192650000e-36 -7.670780000e-37  1.586318458e-36  1.874710000e-01
 2.414790000e-37  4.334980000e-37 -4.500000000e+01  2.414790000e-37  4.334980000e-37 -3.051720000e-37  5.825483439e-37  1.161130000e-01
 5.500000000e+01 -9.711550000e-37 -5.121780000e-37  7.242710000e-37 -9.711550000e-37 -5.121780000e-37  1.315308640e-36  1.944610000e-01
 4.500000000e+01  5.602140000e-37  3.813800000e-37  2.804220000e-37  5.602140000e-37  3.813800000e-37  7.334350198e-37  1.167000000e-01
-5.490000000e+01 -8.479440000e-37  3.320800000e+00 -6.237610000e-37 -8.479440000e-37 -4.554200000e-37  1.146949950e-36  1.519460000e-01
-5.459900000e+01 -8.546060000e-37  6.629500000e+00 -6.473550000e-37 -8.546060000e-37 -4.194390000e-37  1.151238023e-36  1.514160000e-01
-5.409900000e+01 -8.613690000e-37  9.914000000e+00 -6.683780000e-37 -8.613690000e-37 -3.808150000e-37  1.154861797e-36  1.509890000e-01
-5.340200000e+01 -8.683100000e-37  1.316200000e+01 -6.865050000e-37 -8.683100000e-37 -3.402530000e-37  1.158025680e-36  1.506900000e-01
-5.251000000e+01 -8.749740000e-37  1.636300000e+01 -7.011130000e-37 -8.749740000e-37 -2.978420000e-37  1.160107235e-36  1.505490000e-01
-5.142600000e+01 -8.816350000e-37  1.950300000e+01 -7.121230000e-37 -8.816350000e-37 -2.540370000e-37  1.161436282e-36  1.505550000e-01
-5.015400000e+01 -8.884280000e-37  2.257300000e+01 -7.193890000e-37 -8.884280000e-37 -2.092520000e-37  1.162158012e-36  1.506960000e-01
-4.870000000e+01 -8.953630000e-37  2.556000000e+01 -7.228320000e-37 -8.953630000e-37 -1.638300000e-37  1.162325802e-36  1.509560000e-01
-4.706800000e+01 -9.027000000e-37  2.845400000e+01 -7.230940000e-37 -9.027000000e-37 -1.182620000e-37  1.162634131e-36  1.513180000e-01
-4.526400000e+01 -9.104710000e-37  3.124400000e+01 -7.211610000e-37 -9.104710000e-37 -7.298990000e-38  1.163768944e-36  1.517330000e-01
-4.329500000e+01 -9.198620000e-37  3.392000000e+01 -7.197750000e-37 -9.198620000e-37 -2.894930000e-38  1.168357912e-36  1.521390000e-01
-4.116800000e+01 -9.298020000e-37  3.647200000e+01 -7.183600000e-37 -9.298020000e-37  1.376230000e-38  1.175058403e-36  1.525420000e-01
-3.889100000e+01 -8.754280000e-37  3.889100000e+01 -5.186460000e-38 -8.754280000e-37  7.045760000e-37  1.124940647e-36  1.528080000e-01
-3.647200000e+01 -9.451140000e-37  4.116800000e+01 -7.223650000e-37 -9.451140000e-37  9.480190000e-38  1.193331080e-36  1.528350000e-01
-3.392000000e+01 -9.573480000e-37  4.329500000e+01 -7.322740000e-37 -9.573480000e-37  1.357930000e-37  1.212922150e-36  1.527090000e-01
-3.124400000e+01 -9.705230000e-37  4.526400000e+01 -7.423070000e-37 -9.705230000e-37  1.779280000e-37  1.234744082e-36  1.525050000e-01
-2.845400000e+01 -9.843410000e-37  4.706800000e+01 -7.506480000e-37 -9.843410000e-37  2.217550000e-37  1.257606816e-36  1.523110000e-01
-2.556000000e+01 -9.991690000e-37  4.870000000e+01 -7.566010000e-37 -9.991690000e-37  2.673940000e-37  1.281516022e-36  1.521830000e-01
-2.257300000e+01 -1.015750000e-36  5.015400000e+01 -7.600930000e-37 -1.015750000e-36  3.148570000e-37  1.307143589e-36  1.521290000e-01
-1.950300000e+01 -1.035590000e-36  5.142600000e+01 -7.622570000e-37 -1.035590000e-36  3.644920000e-37  1.336539113e-36  1.521240000e-01
-1.636300000e+01 -1.059830000e-36  5.251000000e+01 -7.643360000e-37 -1.059830000e-36  4.168490000e-37  1.371572907e-36  1.521080000e-01
-1.316200000e+01 -1.092230000e-36  5.340200000e+01 -7.705190000e-37 -1.092230000e-36  4.740660000e-37  1.418239921e-36  1.520190000e-01
-9.914000000e+00 -1.135050000e-36  5.409900000e+01 -7.825990000e-37 -1.135050000e-36  5.392140000e-37  1.480388947e-36  1.518290000e-01
-6.629500000e+00 -1.171890000e-36  5.459900000e+01 -7.908340000e-37 -1.171890000e-36  6.138780000e-37  1.541295165e-36  1.523690000e-01
-3.320800000e+00 -1.156770000e-36  5.490000000e+01 -7.628800000e-37 -1.156770000e-36  6.599080000e-37  1.534790310e-36  1.536590000e-01
-3.732510000e-02  3.236137700e+00  5.505479000e+01 -3.732510000e-02 -8.466230000e-02  1.547900000e-01  1.803352773e-01  1.697040000e-01
-7.402200000e-02  6.455639000e+00  5.486388500e+01 -7.402200000e-02 -1.738610000e-01  2.648850000e-01  3.253781908e-01  1.648280000e-01
-1.112100000e-01  9.681438000e+00  5.451209500e+01 -1.112100000e-01 -2.325620000e-01  4.130950000e-01  4.869293860e-01  1.366270000e-01
-1.489060000e-01  1.289510000e+01  5.398554200e+01 -1.489060000e-01 -2.669000000e-01  5.835420000e-01  6.587335369e-01  1.222300000e-01
-1.870690000e-01  1.608575400e+01  5.327616300e+01 -1.870690000e-01 -2.772460000e-01  7.661630000e-01  8.359819961e-01  1.162760000e-01
-2.256200000e-01  1.923643400e+01  5.237678400e+01 -2.256200000e-01 -2.665660000e-01  9.507840000e-01  1.012892902e+00  1.197010000e-01
-2.644800000e-01  2.233458100e+01  5.128230000e+01 -2.644800000e-01 -2.384190000e-01  1.128300000e+00  1.183154335e+00  1.304810000e-01
-3.034450000e-01  2.536287200e+01  4.999036000e+01 -3.034450000e-01 -1.971280000e-01  1.290360000e+00  1.340137025e+00  1.460140000e-01
-3.422250000e-01  2.830603200e+01  4.849693000e+01 -3.422250000e-01 -1.479680000e-01  1.428930000e+00  1.476771284e+00  1.639000000e-01
-3.803880000e-01  3.114649730e+01  4.680007000e+01 -3.803880000e-01 -9.750270000e-02  1.536070000e+00  1.585469284e+00  1.822480000e-01
-4.173330000e-01  3.386595530e+01  4.489890000e+01 -4.173330000e-01 -5.404470000e-02  1.603900000e+00  1.658186622e+00  1.994310000e-01
-4.523120000e-01  3.644380870e+01  4.279272000e+01 -4.523120000e-01 -2.819130000e-02  1.624720000e+00  1.686741229e+00  2.139040000e-01
-4.846990000e-01  3.885753420e+01  4.048273000e+01 -4.846990000e-01 -3.346580000e-02  1.591730000e+00  1.664228792e+00  2.237000000e-01
-5.132250000e-01  4.108204890e+01  3.797186000e+01 -5.132250000e-01 -8.595110000e-02  1.499860000e+00  1.587566538e+00  2.265030000e-01
-5.365210000e-01  4.308982800e+01  3.526637000e+01 -5.365210000e-01 -2.051720000e-01  1.346370000e+00  1.463783628e+00  2.200320000e-01
-5.536020000e-01  4.485096000e+01  3.237728000e+01 -5.536020000e-01 -4.130400000e-01  1.133280000e+00  1.327177748e+00  2.018340000e-01
-5.633150000e-01  4.633541100e+01  2.932238800e+01 -5.633150000e-01 -7.325890000e-01  8.683880000e-01  1.268112042e+00  1.701120000e-01
-5.646820000e-01  4.751419000e+01  2.612652100e+01 -5.646820000e-01 -1.185810000e+00  5.665210000e-01  1.430369589e+00  1.276170000e-01
-5.569910000e-01  4.836322000e+01  2.282320000e+01 -5.569910000e-01 -1.790780000e+00  2.502000000e-01  1.892017976e+00  9.989370000e-02
-5.404340000e-01  4.886816000e+01  1.945221260e+01 -5.404340000e-01 -2.557840000e+00 -5.078740000e-02  2.614802810e+00  1.343900000e-01
-5.151390000e-01  4.902416000e+01  1.606192000e+01 -5.151390000e-01 -3.485840000e+00 -3.010800000e-01  3.536537553e+00  2.376740000e-01
-4.835290000e-01  4.884377000e+01  1.269868900e+01 -4.835290000e-01 -4.558230000e+00 -4.633110000e-01  4.607159440e+00  3.798250000e-01
-4.446210000e-01  4.835704000e+01  9.410179000e+00 -4.446210000e-01 -5.741960000e+00 -5.038210000e-01  5.781144184e+00  5.441060000e-01
-4.044710000e-01  4.761620000e+01  6.235434000e+00 -4.044710000e-01 -6.982800000e+00 -3.940660000e-01  7.005596380e+00  7.206420000e-01
-3.589040000e-01  4.668830000e+01  3.196819000e+00 -3.589040000e-01 -8.211700000e+00 -1.239810000e-01  8.220474455e+00  8.975050000e-01
-6.651500000e-37 -9.797660000e-37  5.166700000e+01 -6.651500000e-37 -9.797660000e-37  4.864270000e-38  1.185213926e-36  1.179110000e-01
-2.518330000e-37  1.240670000e-37  4.833300000e+01 -2.518330000e-37  1.240670000e-37 -2.360480000e-37  3.667848670e-37  8.210720000e-02
-3.220006000e+00  4.683144000e+01  3.368700000e-01  1.007940000e-01 -8.068560000e+00  3.368700000e-01  8.076218255e+00  8.694100000e-01
-6.289782000e+00  4.784501000e+01  3.766520000e-01  3.397180000e-01 -6.753990000e+00  3.766520000e-01  6.773009373e+00  6.803680000e-01
-9.500901000e+00  4.862641000e+01  4.101240000e-01  4.130990000e-01 -5.472590000e+00  4.101240000e-01  5.503461982e+00  4.993110000e-01
-1.282044800e+01  4.911908000e+01  4.412380000e-01  3.415520000e-01 -4.282920000e+00  4.412380000e-01  4.319114778e+00  3.364050000e-01
-1.620608500e+01  4.928187000e+01  4.656790000e-01  1.569150000e-01 -3.228130000e+00  4.656790000e-01  3.265318138e+00  2.015570000e-01
-1.960793700e+01  4.909333000e+01  4.842610000e-01 -1.049370000e-01 -2.332670000e+00  4.842610000e-01  2.384715878e+00  1.158340000e-01
-2.297924400e+01  4.854842000e+01  4.950390000e-01 -4.062440000e-01 -1.605580000e+00  4.950390000e-01  1.728578877e+00  1.034310000e-01
-2.627316300e+01  4.765797000e+01  4.981630000e-01 -7.131630000e-01 -1.042030000e+00  4.981630000e-01  1.357421954e+00  1.402470000e-01
-2.945223700e+01  4.644057000e+01  4.936430000e-01 -9.982370000e-01 -6.274300000e-01  4.936430000e-01  1.278213176e+00  1.795040000e-01
-3.248572000e+01  4.492289500e+01  4.822650000e-01 -1.241720000e+00 -3.411050000e-01  4.822650000e-01  1.375063893e+00  2.062200000e-01
-3.535141000e+01  4.313514700e+01  4.648550000e-01 -1.431410000e+00 -1.598530000e-01  4.648550000e-01  1.513465474e+00  2.200290000e-01
-3.803385000e+01  4.110746040e+01  4.424980000e-01 -1.561850000e+00 -6.053960000e-02  4.424980000e-01  1.624452199e+00  2.230860000e-01
-4.052370000e+01  3.886902020e+01  4.164760000e-01 -1.632700000e+00 -2.197980000e-02  4.164760000e-01  1.685124524e+00  2.178540000e-01
-4.281554000e+01  3.644640310e+01  3.876440000e-01 -1.647540000e+00 -2.559690000e-02  3.876440000e-01  1.692722991e+00  2.066230000e-01
-4.490712000e+01  3.386377790e+01  3.565570000e-01 -1.612120000e+00 -5.622210000e-02  3.565570000e-01  1.652036535e+00  1.914550000e-01
-4.679740000e+01  3.114247100e+01  3.241250000e-01 -1.533400000e+00 -1.015290000e-01  3.241250000e-01  1.570567004e+00  1.740560000e-01
-4.848687000e+01  2.830211000e+01  2.909510000e-01 -1.418870000e+00 -1.518900000e-01  2.909510000e-01  1.456336202e+00  1.559100000e-01
-4.997601000e+01  2.536022800e+01  2.574580000e-01 -1.276010000e+00 -1.997720000e-01  2.574580000e-01  1.316964310e+00  1.385780000e-01
-5.126627000e+01  2.233380800e+01  2.239630000e-01 -1.112270000e+00 -2.391920000e-01  2.239630000e-01  1.159533006e+00  1.239430000e-01
-5.236111900e+01  1.923765300e+01  1.906940000e-01 -9.351190000e-01 -2.653470000e-01  1.906940000e-01  9.905658869e-01  1.144280000e-01
-5.326242500e+01  1.608885400e+01  1.578070000e-01 -7.524250000e-01 -2.741460000e-01  1.578070000e-01  8.162122636e-01  1.125500000e-01
-5.397457000e+01  1.289949600e+01  1.253980000e-01 -5.725700000e-01 -2.625040000e-01  1.253980000e-01  6.422378168e-01  1.200730000e-01
-5.450464200e+01  9.686751000e+00  9.351100000e-02 -4.056420000e-01 -2.272490000e-01  9.351100000e-02  4.742698043e-01  1.354670000e-01
-5.485846900e+01  6.459669000e+00  6.213230000e-02 -2.594690000e-01 -1.698310000e-01  6.213230000e-02  3.162706961e-01  1.627110000e-01
-5.505454800e+01  3.239787400e+00  3.128760000e-02 -1.545480000e-01 -8.101260000e-02  3.128760000e-02  1.772767316e-01  1.667460000e-01
-2.361880000e+00  3.884186000e+01  2.038750000e+00 -2.361880000e+00 -9.491140000e+00  2.038750000e+00  9.990831657e+00  1.015600000e+00
-1.507410000e+00  4.218108000e+01  1.312920000e+00 -1.507410000e+00 -9.485920000e+00  1.312920000e+00  9.694262328e+00  1.027470000e+00
-5.166700000e+01 -9.600250000e-37  6.329470000e-37 -8.614560000e-38 -9.600250000e-37  6.329470000e-37  1.153122270e-36  1.132310000e-01
-4.833300000e+01  0.000000000e+00 -3.168600000e-38  8.283060000e-38 -0.000000000e+00 -3.168600000e-38  8.868433285e-38  7.595660000e-02
-2.736710000e-02  2.769241300e+00  4.499922910e+01 -2.736710000e-02  5.224130000e-02  8.122910000e-02  1.003806668e-01  8.792330000e-02
-5.617650000e-02  5.529587000e+00  4.483730400e+01 -5.617650000e-02  1.053870000e-01  1.653040000e-01  2.039304571e-01  8.222350000e-02
-8.550050000e-02  8.254890000e+00  4.455382100e+01 -8.550050000e-02  1.433900000e-01  2.908210000e-01  3.353324942e-01  7.421630000e-02
-1.157290000e-01  1.093729800e+01  4.413232700e+01 -1.157290000e-01  1.682980000e-01  4.403270000e-01  4.853918882e-01  8.637270000e-02
-1.473720000e-01  1.357318700e+01  4.356510300e+01 -1.473720000e-01  1.851870000e-01  6.031030000e-01  6.478780440e-01  1.104320000e-01
-1.808710000e-01  1.615179200e+01  4.284938000e+01 -1.808710000e-01  1.947920000e-01  7.733800000e-01  8.177865653e-01  1.399300000e-01
-2.167690000e-01  1.866533200e+01  4.198070700e+01 -2.167690000e-01  1.963320000e-01  9.457070000e-01  9.898973601e-01  1.724100000e-01
-2.557010000e-01  2.110055800e+01  4.096165000e+01 -2.557010000e-01  1.875580000e-01  1.115650000e+00  1.159843061e+00  2.071460000e-01
-2.984200000e-01  2.344480700e+01  3.978947000e+01 -2.984200000e-01  1.648070000e-01  1.279470000e+00  1.324106991e+00  2.439880000e-01
-3.457930000e-01  2.568601100e+01  3.846806000e+01 -3.457930000e-01  1.230110000e-01  1.434060000e+00  1.480281253e+00  2.829540000e-01
-3.988510000e-01  2.780767930e+01  3.699992000e+01 -3.988510000e-01  5.567930000e-02  1.576920000e+00  1.627531564e+00  3.240400000e-01
-4.588570000e-01  2.979582200e+01  3.538925000e+01 -4.588570000e-01 -4.517800000e-02  1.706250000e+00  1.767450101e+00  3.671130000e-01
-5.271150000e-01  3.163096000e+01  3.364105000e+01 -5.271150000e-01 -1.890400000e-01  1.821050000e+00  1.905205881e+00  4.115840000e-01
-6.048420000e-01  3.329655000e+01  3.176231000e+01 -6.048420000e-01 -3.864500000e-01  1.921310000e+00  2.051002088e+00  4.562250000e-01
-6.938860000e-01  3.477446300e+01  2.976043000e+01 -6.938860000e-01 -6.485370000e-01  2.008430000e+00  2.221681590e+00  4.994120000e-01
-7.961950000e-01  3.604709500e+01  2.764809000e+01 -7.961950000e-01 -9.869050000e-01  2.085090000e+00  2.440391007e+00  5.389440000e-01
-9.142220000e-01  3.709754000e+01  2.543554000e+01 -9.142220000e-01 -1.412460000e+00  2.155540000e+00  2.734446527e+00  5.719610000e-01
-1.050930000e+00  3.791143000e+01  2.313819000e+01 -1.050930000e+00 -1.934570000e+00  2.225190000e+00  3.130253262e+00  5.954350000e-01
-1.209780000e+00  3.847528000e+01  2.076903000e+01 -1.209780000e+00 -2.559720000e+00  2.300030000e+00  3.647721498e+00  6.067940000e-01
-1.394630000e+00  3.878612000e+01  1.834250000e+01 -1.394630000e+00 -3.289880000e+00  2.385500000e+00  4.296383770e+00  6.050730000e-01
-1.609780000e+00  3.884107000e+01  1.587277000e+01 -1.609780000e+00 -4.120930000e+00  2.484770000e+00  5.074203156e+00  5.930560000e-01
-1.859280000e+00  3.865112000e+01  1.336458000e+01 -1.859280000e+00 -5.040880000e+00  2.595580000e+00  5.966944681e+00  5.813760000e-01
-2.146460000e+00  3.823376000e+01  1.081952000e+01 -2.146460000e+00 -6.029240000e+00  2.708020000e+00  6.949273187e+00  5.928490000e-01
-2.472300000e+00  3.761768000e+01  8.223090000e+00 -2.472300000e+00 -7.054320000e+00  2.798890000e+00  7.981822047e+00  6.591270000e-01
-2.830910000e+00  3.684785000e+01  5.548300000e+00 -2.830910000e+00 -8.070150000e+00  2.831300000e+00  9.008753085e+00  8.052480000e-01
-2.717000000e+00  4.258030000e-37  4.491800000e+01 -3.825910000e-37  4.258030000e-37  2.102710000e-37  6.098343722e-37  8.122850000e-02
-5.424200000e+00  4.027010000e-37  4.467200000e+01 -3.785630000e-37  4.027010000e-37  1.808060000e-37  5.815228714e-37  7.884960000e-02
-8.111500000e+00  3.987090000e-37  4.426300000e+01 -3.680300000e-37  3.987090000e-37  1.535360000e-37  5.639044696e-37  7.673860000e-02
-1.076900000e+01  3.996910000e-37  4.369200000e+01 -3.594900000e-37  3.996910000e-37  1.292580000e-37  5.528956377e-37  7.535490000e-02
-1.338800000e+01  4.002770000e-37  4.296200000e+01 -3.518910000e-37  4.002770000e-37  1.069580000e-37  5.435889682e-37  7.411500000e-02
-1.595700000e+01  3.995060000e-37  4.207600000e+01 -3.444440000e-37  3.995060000e-37  8.591310000e-38  5.344415533e-37  7.297770000e-02
-1.846900000e+01  3.975630000e-37  4.103500000e+01 -3.364640000e-37  3.975630000e-37  6.601350000e-38  5.249972804e-37  7.194680000e-02
-2.091300000e+01  3.949530000e-37  3.984600000e+01 -3.277160000e-37  3.949530000e-37  4.725740000e-38  5.153822957e-37  7.104270000e-02
-2.328000000e+01  3.921390000e-37  3.851000000e+01 -3.181440000e-37  3.921390000e-37  2.969480000e-38  5.058363186e-37  7.027790000e-02
-2.556300000e+01  3.896710000e-37  3.703400000e+01 -3.080450000e-37  3.896710000e-37  1.337630000e-38  4.969045539e-37  6.965350000e-02
-2.775200000e+01  3.879570000e-37  3.542300000e+01 -2.981700000e-37  3.879570000e-37 -0.000000000e+00  4.893015254e-37  6.917020000e-02
-2.984100000e+01  3.871550000e-37  3.368300000e+01 -2.900100000e-37  3.871550000e-37 -1.562970000e-38  4.839825220e-37  6.882740000e-02
-3.182000000e+01  3.871180000e-37  3.182000000e+01 -2.850170000e-37  3.871180000e-37 -2.941360000e-38  4.816224622e-37  6.856650000e-02
-3.368300000e+01  3.863840000e-37  2.984100000e+01 -2.831510000e-37  3.863840000e-37 -4.411550000e-38  4.810543229e-37  6.839280000e-02
-3.542300000e+01  3.858360000e-37  2.775200000e+01 -2.828720000e-37  3.858360000e-37 -5.948250000e-38  4.821038841e-37  6.838080000e-02
-3.703400000e+01  3.848890000e-37  2.556300000e+01 -2.827340000e-37  3.848890000e-37 -7.544350000e-38  4.834974444e-37  6.851870000e-02
-3.851000000e+01  3.836340000e-37  2.328000000e+01 -2.819430000e-37  3.836340000e-37 -9.184710000e-38  4.848739950e-37  6.878360000e-02
-3.984600000e+01  3.822280000e-37  2.091300000e+01 -2.801550000e-37  3.822280000e-37 -1.084730000e-37  4.861599117e-37  6.919270000e-02
-4.103500000e+01  3.807580000e-37  1.846900000e+01 -2.771770000e-37  3.807580000e-37 -1.251270000e-37  4.872991997e-37  6.976570000e-02
-4.207600000e+01  3.793300000e-37  1.595700000e+01 -2.729530000e-37  3.793300000e-37 -1.416340000e-37  4.883183174e-37  7.050720000e-02
-4.296200000e+01  3.780330000e-37  1.338800000e+01 -2.674660000e-37  3.780330000e-37 -1.578210000e-37  4.892386721e-37  7.141270000e-02
-4.369200000e+01  3.770760000e-37  1.076900000e+01 -2.607860000e-37  3.770760000e-37 -1.736070000e-37  4.902397760e-37  7.247470000e-02
-4.426300000e+01  3.764540000e-37  8.111500000e+00 -2.529370000e-37  3.764540000e-37 -1.886930000e-37  4.912227482e-37  7.369130000e-02
-4.467200000e+01  3.765320000e-37  5.424200000e+00 -2.440330000e-37  3.765320000e-37 -2.030630000e-37  4.925068873e-37  7.504670000e-02
-4.491800000e+01  3.769490000e-37  2.717000000e+00 -2.341410000e-37  3.769490000e-37 -2.158250000e-37  4.934500857e-37  7.651740000e-02
-4.499541440e+01  2.763966300e+00  2.343430000e-02 -7.741440000e-02  4.696630000e-02  2.343430000e-02  9.353068523e-02  8.340820000e-02
-4.483233800e+01  5.523179500e+00  4.779130000e-02 -1.603380000e-01  9.897950000e-02  4.779130000e-02  1.943945061e-01  7.856630000e-02
-4.454697800e+01  8.248694000e+00  7.275900000e-02 -2.839780000e-01  1.371940000e-01  7.275900000e-02  3.236658311e-01  6.880200000e-02
-4.412189800e+01  1.093278100e+01  9.860510000e-02 -4.298980000e-01  1.637810000e-01  9.860510000e-02  4.704885462e-01  7.834110000e-02
-4.355104400e+01  1.357085000e+01  1.255620000e-01 -5.890440000e-01  1.828500000e-01  1.255620000e-01  6.294225705e-01  1.007470000e-01
-4.283205500e+01  1.615205000e+01  1.540100000e-01 -7.560550000e-01  1.950500000e-01  1.540100000e-01  7.958534699e-01  1.289910000e-01
-4.196071500e+01  1.866899800e+01  1.843890000e-01 -9.257150000e-01  1.999980000e-01  1.843890000e-01  9.648558258e-01  1.601440000e-01
-4.093993000e+01  2.110875600e+01  2.172170000e-01 -1.093930000e+00  1.957560000e-01  2.172170000e-01  1.132336735e+00  1.933930000e-01
-3.976718000e+01  2.345905400e+01  2.530970000e-01 -1.257180000e+00  1.790540000e-01  2.530970000e-01  1.294843612e+00  2.286230000e-01
-3.844658000e+01  2.570822100e+01  2.927280000e-01 -1.412580000e+00  1.452210000e-01  2.927280000e-01  1.449883125e+00  2.659350000e-01
-3.698078000e+01  2.784015320e+01  3.369220000e-01 -1.557780000e+00  8.815320000e-02  3.369220000e-01  1.596234929e+00  3.054180000e-01
-3.537409000e+01  2.984128278e+01  3.865820000e-01 -1.691090000e+00  2.827820000e-04  3.865820000e-01  1.734713553e+00  3.470240000e-01
-3.363163000e+01  3.169263100e+01  4.428020000e-01 -1.811630000e+00 -1.273690000e-01  4.428020000e-01  1.869304611e+00  3.903220000e-01
-3.176029000e+01  3.337781500e+01  5.068240000e-01 -1.919290000e+00 -3.051850000e-01  5.068240000e-01  2.008402986e+00  4.344290000e-01
-2.976741000e+01  3.487862300e+01  5.800440000e-01 -2.015410000e+00 -5.443770000e-01  5.800440000e-01  2.166719831e+00  4.780730000e-01
-2.766558000e+01  3.617717100e+01  6.642010000e-01 -2.102580000e+00 -8.568290000e-01  6.642010000e-01  2.365620756e+00  5.191130000e-01
-2.546497000e+01  3.725590000e+01  7.612720000e-01 -2.184970000e+00 -1.254100000e+00  7.612720000e-01  2.631804660e+00  5.546590000e-01
-2.318105000e+01  3.809919000e+01  8.736510000e-01 -2.268050000e+00 -1.746810000e+00  8.736510000e-01  2.993102412e+00  5.816710000e-01
-2.082732000e+01  3.869157000e+01  1.004310000e+00 -2.358320000e+00 -2.343430000e+00  1.004310000e+00  3.473035555e+00  5.972870000e-01
-1.841937000e+01  3.902718000e+01  1.156700000e+00 -2.462370000e+00 -3.048820000e+00  1.156700000e+00  4.086138067e+00  5.996950000e-01
-1.597338000e+01  3.909937000e+01  1.334920000e+00 -2.585380000e+00 -3.862630000e+00  1.334920000e+00  4.835918906e+00  5.899970000e-01
-1.349771000e+01  3.891426000e+01  1.543350000e+00 -2.728710000e+00 -4.777740000e+00  1.543350000e+00  5.714419218e+00  5.760600000e-01
-1.099882000e+01  3.848334000e+01  1.787020000e+00 -2.887320000e+00 -5.779660000e+00  1.787020000e+00  6.703322085e+00  5.782360000e-01
-8.467950000e+00  3.782708000e+01  2.070010000e+00 -3.043750000e+00 -6.844920000e+00  2.070010000e+00  7.771890714e+00  6.313370000e-01
-5.884660000e+00  3.697873000e+01  2.393380000e+00 -3.167660000e+00 -7.939270000e+00  2.393380000e+00  8.876617928e+00  7.745590000e-01
-2.542630000e-01  4.468300000e+01 -2.454582000e+00 -2.542630000e-01 -1.021700000e+01  8.662180000e-01  1.025680615e+01  1.170020000e+00
-1.866690000e-01  4.387530000e+01 -5.098030000e+00 -1.866690000e-01 -1.072370000e+01  1.531470000e+00  1.083411221e+01  1.224960000e+00
-1.820820000e-01  4.344470000e+01 -7.768960000e+00 -1.820820000e-01 -1.065430000e+01  2.145040000e+00  1.086961172e+01  1.232280000e+00
-2.316120000e-01  4.339610000e+01 -1.050985000e+01 -2.316120000e-01 -1.000590000e+01  2.652150000e+00  1.035401268e+01  1.194020000e+00
-3.023130000e-01  4.355308000e+01 -1.339585000e+01 -3.023130000e-01 -8.956920000e+00  2.967150000e+00  9.440433685e+00  1.090380000e+00
-3.523160000e-01  4.371474000e+01 -1.643875000e+01 -3.523160000e-01 -7.711260000e+00  3.064250000e+00  8.305256493e+00  9.323920000e-01
-3.843280000e-01  4.376176000e+01 -1.958908000e+01 -3.843280000e-01 -6.392240000e+00  2.983920000e+00  7.064858017e+00  7.487170000e-01
-4.226970000e-01  4.360051000e+01 -2.283199000e+01 -4.226970000e-01 -5.099490000e+00  2.728010000e+00  5.798750691e+00  5.619810000e-01
-4.569090000e-01  4.315957000e+01 -2.612402000e+01 -4.569090000e-01 -3.908430000e+00  2.329980000e+00  4.573116847e+00  3.876760000e-01
-4.864100000e-01  4.239352000e+01 -2.940740000e+01 -4.864100000e-01 -2.870480000e+00  1.836600000e+00  3.442288436e+00  2.398300000e-01
-5.082720000e-01  4.128259000e+01 -3.262494000e+01 -5.082720000e-01 -2.012410000e+00  1.295060000e+00  2.446490310e+00  1.425340000e-01
-5.213110000e-01  3.982613000e+01 -3.571999400e+01 -5.213110000e-01 -1.341870000e+00  7.520060000e-01  1.624159253e+00  1.230010000e-01
-5.247270000e-01  3.804188700e+01 -3.864394200e+01 -5.247270000e-01 -8.491130000e-01  2.470580000e-01  1.028284477e+00  1.587080000e-01
-5.182690000e-01  3.595915500e+01 -4.135802500e+01 -5.182690000e-01 -5.128450000e-01 -1.900250000e-01  7.534734574e-01  1.989020000e-01
-5.019070000e-01  3.361423700e+01 -4.383484800e+01 -5.019070000e-01 -3.057630000e-01 -5.398480000e-01  7.980209972e-01  2.240530000e-01
-4.770750000e-01  3.104630100e+01 -4.605743700e+01 -4.770750000e-01 -1.976990000e-01 -7.934370000e-01  9.466930459e-01  2.331280000e-01
-4.450480000e-01  2.829420800e+01 -4.801873900e+01 -4.450480000e-01 -1.597920000e-01 -9.507390000e-01  1.061840785e+00  2.288140000e-01
-4.070850000e-01  2.539373900e+01 -4.971811000e+01 -4.070850000e-01 -1.662610000e-01 -1.018110000e+00  1.109012574e+00  2.146250000e-01
-3.644410000e-01  2.237768600e+01 -5.116056000e+01 -3.644410000e-01 -1.953140000e-01 -1.006560000e+00  1.088176380e+00  1.942760000e-01
-3.182270000e-01  1.927374300e+01 -5.235618400e+01 -3.182270000e-01 -2.292570000e-01 -9.301840000e-01  1.009489707e+00  1.719770000e-01
-2.693410000e-01  1.610880100e+01 -5.331508300e+01 -2.693410000e-01 -2.541990000e-01 -8.050830000e-01  8.861830188e-01  1.530950000e-01
-2.185210000e-01  1.290238200e+01 -5.405086400e+01 -2.185210000e-01 -2.596180000e-01 -6.488640000e-01  7.322413699e-01  1.443070000e-01
-1.662190000e-01  9.676260000e+00 -5.457943600e+01 -1.662190000e-01 -2.377400000e-01 -4.804360000e-01  5.612199334e-01  1.502630000e-01
-1.126670000e-01  6.444165000e+00 -5.491727200e+01 -1.126670000e-01 -1.853350000e-01 -3.182720000e-01  3.851492972e-01  1.788210000e-01
-5.784100000e-02  3.226820800e+00 -5.508639300e+01 -5.784100000e-02 -9.397920000e-02 -1.863930000e-01  2.166102993e-01  1.939630000e-01
-3.320800000e+00 -7.398060000e-37 -5.490000000e+01  5.828930000e-37 -7.398060000e-37 -7.798060000e-37  1.222773309e-36  1.861790000e-01
-6.629500000e+00 -6.695310000e-37 -5.459900000e+01  5.295880000e-37 -6.695310000e-37 -7.689940000e-37  1.148950383e-36  1.853550000e-01
-9.914000000e+00 -6.715440000e-37 -5.409900000e+01  4.530790000e-37 -6.715440000e-37 -7.627050000e-37  1.112641380e-36  1.852060000e-01
-1.316200000e+01 -6.928210000e-37 -5.340200000e+01  3.787760000e-37 -6.928210000e-37 -7.620390000e-37  1.097349367e-36  1.853940000e-01
-1.636300000e+01 -7.161630000e-37 -5.251000000e+01  3.098840000e-37 -7.161630000e-37 -7.630210000e-37  1.091383792e-36  1.851590000e-01
-1.950300000e+01 -7.359970000e-37 -5.142600000e+01  2.449190000e-37 -7.359970000e-37 -7.613090000e-37  1.086861672e-36  1.846280000e-01
-2.257300000e+01 -7.523070000e-37 -5.015400000e+01  1.834570000e-37 -7.523070000e-37 -7.561940000e-37  1.082336204e-36  1.838730000e-01
-2.556000000e+01 -7.655380000e-37 -4.870000000e+01  1.249270000e-37 -7.655380000e-37 -7.468540000e-37  1.076775781e-36  1.829750000e-01
-2.845400000e+01 -7.767300000e-37 -4.706800000e+01  6.914410000e-38 -7.767300000e-37 -7.336090000e-37  1.070641193e-36  1.819680000e-01
-3.124400000e+01 -7.865340000e-37 -4.526400000e+01  1.629860000e-38 -7.865340000e-37 -7.175530000e-37  1.064792790e-36  1.808400000e-01
-3.392000000e+01 -7.954870000e-37 -4.329500000e+01 -3.307200000e-38 -7.954870000e-37 -7.008590000e-37  1.060705738e-36  1.795200000e-01
-3.647200000e+01 -8.036880000e-37 -4.116800000e+01 -7.862460000e-38 -8.036880000e-37 -6.854750000e-37  1.059231894e-36  1.779830000e-01
-3.889100000e+01 -8.117800000e-37 -3.889100000e+01 -1.212310000e-37 -8.117800000e-37 -6.719670000e-37  1.060765466e-36  1.762270000e-01
-4.116800000e+01 -8.203960000e-37 -3.647200000e+01 -1.624570000e-37 -8.203960000e-37 -6.617940000e-37  1.066495744e-36  1.742460000e-01
-4.329500000e+01 -8.235700000e-37 -3.392000000e+01 -2.007620000e-37 -8.235700000e-37 -6.566640000e-37  1.072278198e-36  1.720680000e-01
-4.526400000e+01 -8.241140000e-37 -3.124400000e+01 -2.377020000e-37 -8.241140000e-37 -6.534510000e-37  1.078269139e-36  1.697590000e-01
-4.706800000e+01 -8.233220000e-37 -2.845400000e+01 -2.744330000e-37 -8.233220000e-37 -6.498290000e-37  1.084181865e-36  1.674430000e-01
-4.870000000e+01 -8.220880000e-37 -2.556000000e+01 -3.113920000e-37 -8.220880000e-37 -6.443510000e-37  1.089945810e-36  1.652130000e-01
-5.015400000e+01 -8.211400000e-37 -2.257300000e+01 -3.486160000e-37 -8.211400000e-37 -6.363520000e-37  1.095786422e-36  1.631090000e-01
-5.142600000e+01 -8.208660000e-37 -1.950300000e+01 -3.859180000e-37 -8.208660000e-37 -6.254320000e-37  1.101779869e-36  1.611450000e-01
-5.251000000e+01 -8.215150000e-37 -1.636300000e+01 -4.230940000e-37 -8.215150000e-37 -6.114710000e-37  1.108057856e-36  1.593320000e-01
-5.340200000e+01 -8.229560000e-37 -1.316200000e+01 -4.598420000e-37 -8.229560000e-37 -5.940460000e-37  1.114271912e-36  1.576870000e-01
-5.409900000e+01 -8.256150000e-37 -9.914000000e+00 -4.960420000e-37 -8.256150000e-37 -5.734410000e-37  1.120951549e-36  1.562160000e-01
-5.459900000e+01 -8.291010000e-37 -6.629500000e+00 -5.310520000e-37 -8.291010000e-37 -5.487640000e-37  1.127194137e-36  1.549000000e-01
-5.490000000e+01 -8.353490000e-37 -3.320800000e+00 -5.660560000e-37 -8.353490000e-37 -5.220450000e-37  1.136115456e-36  1.536900000e-01
-7.969340000e-37 -1.138760000e-36 -5.166700000e+01 -7.969340000e-37 -1.138760000e-36 -1.951700000e-37  1.403556008e-36  1.569780000e-01
-9.256000000e-38 -2.196130000e-38 -4.833300000e+01 -9.256000000e-38 -2.196130000e-38 -4.579770000e-38  1.055797406e-37  1.212990000e-01
-3.548760000e+00  3.511654000e+01 -1.983900000e-01 -3.548760000e+00 -9.801460000e+00  2.518610000e+00  1.072407161e+01  1.292800000e+00